version 3
run General-0-20230511-18:47:36-410
attr configname General
attr datetime 20230511-18:47:36
attr datetimef 20230511-184736
attr experiment General
attr inifile omnetpp.ini
attr iterationvars ""
attr iterationvarsd ""
attr iterationvarsf ""
attr measurement ""
attr network Network
attr processid 410
attr repetition 0
attr replication #0
attr resultdir results
attr runnumber 0
attr seedset 0
config network Network
config sim-time-limit 200s
config Network.gen.generationInterval exponential(0.001)
config Network.queue.serviceTime exponential(0.001)
config Network.nodeTx.gen.generationInterval exponential(0.1)
config Network.nodeTx.gen.packetByteSize 12500
config Network.queue.bufferSize 200
config Network.nodeRx.queue.bufferSize 200
config Network.nodeTx.queue.bufferSize 2000000
config cmdenv-interactive true

vector 0 Network.nodeTx.queue PacketDropQueue ETV
vector 1 Network.queue PacketDropQueue ETV
vector 2 Network.nodeRx.queue PacketDropQueue ETV
vector 3 Network.nodeTx.gen PacketGen ETV
vector 4 Network.nodeTx.queue BufferSizeQueue ETV
vector 5 Network.queue BufferSizeQueue ETV
vector 6 Network.nodeRx.queue BufferSizeQueue ETV
vector 7 Network.nodeRx.sink Delay ETV
vector 8 Network.nodeRx.sink PacketUsed ETV
0	0	0	0
1	0	0	0
2	0	0	0
2	2969	42.981853423165	1
2	2979	43.181853423165	1
2	2991	43.381853423165	1
2	3007	43.581853423165	1
2	3019	43.781853423165	1
2	3039	43.981853423165	1
2	3051	44.181853423165	1
2	3065	44.381853423165	1
2	3079	44.581853423165	1
2	3093	44.781853423165	1
2	3105	44.981853423165	1
2	3123	45.181853423165	1
2	3135	45.381853423165	1
2	3151	45.581853423165	1
2	3163	45.781853423165	1
2	3177	45.981853423165	1
2	3189	46.181853423165	1
2	3203	46.381853423165	1
2	3219	46.581853423165	1
2	3231	46.781853423165	1
2	3241	46.981853423165	1
2	3259	47.224222061063	1
2	3272	47.424222061063	1
2	3295	47.793811538692	1
2	3315	48.000451525779	1
2	3333	48.200451525779	1
2	3347	48.400451525779	1
2	3367	48.600451525779	1
2	3379	48.800451525779	1
2	3391	49.000451525779	1
2	3407	49.200451525779	1
2	3421	49.400451525779	1
2	3439	49.600451525779	1
2	3455	49.800451525779	1
2	3467	50.000451525779	1
2	3487	50.200451525779	1
2	3505	50.400451525779	1
2	3515	50.600451525779	1
2	3529	50.800451525779	1
2	3543	51.000451525779	1
2	3557	51.200451525779	1
2	3573	51.400451525779	1
2	3587	51.600451525779	1
2	3599	51.800451525779	1
2	3613	52.000451525779	1
2	3627	52.200451525779	1
2	3651	52.400451525779	1
2	3663	52.600451525779	1
2	3677	52.800451525779	1
2	3689	53.000451525779	1
2	3703	53.200451525779	1
2	3713	53.400451525779	1
2	3723	53.600451525779	1
2	3739	53.800451525779	1
2	3757	54.000451525779	1
2	3771	54.200451525779	1
2	3781	54.400451525779	1
2	3793	54.600451525779	1
2	3805	54.800451525779	1
2	3823	55.000451525779	1
2	3833	55.200451525779	1
2	3847	55.400451525779	1
2	3859	55.600451525779	1
2	3871	55.800451525779	1
2	3885	56.000451525779	1
2	3895	56.200451525779	1
2	3909	56.400451525779	1
2	3921	56.600451525779	1
2	3935	56.800451525779	1
2	3947	57.000451525779	1
2	3963	57.200451525779	1
2	3975	57.400451525779	1
2	3989	57.600451525779	1
2	4003	57.800451525779	1
2	4015	58.000451525779	1
2	4027	58.200451525779	1
2	4039	58.400451525779	1
2	4057	58.608610483143	1
2	4065	58.808610483143	1
2	4147	60.202378997619	1
2	4167	60.402378997619	1
2	4177	60.602378997619	1
2	4191	60.802378997619	1
2	4203	61.002378997619	1
2	4217	61.202378997619	1
2	4227	61.402378997619	1
2	4241	61.602378997619	1
2	4251	61.802378997619	1
2	4265	62.002378997619	1
2	4273	62.202378997619	1
2	4311	62.625525847562	1
2	4325	62.825525847562	1
2	4337	63.025525847562	1
2	4355	63.225525847562	1
2	4365	63.425525847562	1
2	4383	63.625525847562	1
2	4397	63.825525847562	1
2	4411	64.025525847562	1
2	4429	64.225525847562	1
2	4443	64.425525847562	1
2	4459	64.625525847562	1
2	4473	64.825525847562	1
2	4485	65.025525847562	1
2	4497	65.225525847562	1
2	4511	65.425525847562	1
2	4535	65.625525847562	1
2	4553	65.825525847562	1
2	4569	66.025525847562	1
2	4583	66.225525847562	1
2	4595	66.425525847562	1
2	4611	66.625525847562	1
2	4627	66.825525847562	1
2	4639	67.025525847562	1
2	4657	67.225525847562	1
2	4671	67.425525847562	1
2	4683	67.625525847562	1
2	4697	67.825525847562	1
2	4717	68.025525847562	1
2	4733	68.225525847562	1
2	4747	68.425525847562	1
2	4763	68.625525847562	1
2	4775	68.825525847562	1
2	4789	69.025525847562	1
2	4803	69.225525847562	1
2	4821	69.425525847562	1
2	4831	69.625525847562	1
2	4847	69.825525847562	1
2	4861	70.025525847562	1
2	4875	70.225525847562	1
2	4891	70.425525847562	1
2	4905	70.625525847562	1
2	4921	70.825525847562	1
2	4937	71.025525847562	1
2	4955	71.225525847562	1
2	4971	71.425525847562	1
2	4983	71.625525847562	1
2	4999	71.825525847562	1
2	5013	72.025525847562	1
2	5029	72.225525847562	1
2	5041	72.425525847562	1
2	5055	72.625525847562	1
2	5067	72.825525847562	1
2	5081	73.025525847562	1
2	5095	73.225525847562	1
2	5107	73.425525847562	1
2	5121	73.625525847562	1
2	5137	73.825525847562	1
2	5151	74.025525847562	1
2	5167	74.225525847562	1
2	5179	74.425525847562	1
2	5193	74.625525847562	1
2	5211	74.825525847562	1
2	5223	75.025525847562	1
2	5237	75.225525847562	1
2	5253	75.425525847562	1
2	5263	75.625525847562	1
2	5275	75.825525847562	1
2	5289	76.025525847562	1
2	5303	76.225525847562	1
2	5315	76.425525847562	1
2	5329	76.625525847562	1
2	5341	76.825525847562	1
2	5355	77.025525847562	1
2	5367	77.225525847562	1
2	5377	77.425525847562	1
2	5387	77.625525847562	1
2	5399	77.825525847562	1
2	5419	78.025525847562	1
2	5433	78.225525847562	1
2	5447	78.425525847562	1
2	5457	78.625525847562	1
2	5473	78.825525847562	1
2	5487	79.025525847562	1
2	5499	79.225525847562	1
2	5515	79.425525847562	1
2	5525	79.625525847562	1
2	5545	79.825525847562	1
2	5563	80.025525847562	1
2	5577	80.225525847562	1
2	5589	80.425525847562	1
2	5601	80.625525847562	1
2	5617	80.825525847562	1
2	5627	81.025525847562	1
2	5641	81.225525847562	1
2	5665	81.425525847562	1
2	5679	81.625525847562	1
2	5697	81.825525847562	1
2	5711	82.025525847562	1
2	5733	82.225525847562	1
2	5747	82.425525847562	1
2	5769	82.625525847562	1
2	5779	82.825525847562	1
2	5791	83.025525847562	1
2	5805	83.225525847562	1
2	5815	83.425525847562	1
2	5829	83.625525847562	1
2	5839	83.825525847562	1
2	5853	84.025525847562	1
2	5869	84.225525847562	1
2	5883	84.425525847562	1
2	5897	84.625525847562	1
2	5909	84.825525847562	1
2	5919	85.025525847562	1
2	5935	85.225525847562	1
2	5949	85.425525847562	1
2	5965	85.625525847562	1
2	5979	85.825525847562	1
2	5995	86.025525847562	1
2	6009	86.225525847562	1
2	6021	86.425525847562	1
2	6033	86.625525847562	1
2	6049	86.825525847562	1
2	6065	87.025525847562	1
2	6077	87.225525847562	1
2	6091	87.425525847562	1
2	6107	87.625525847562	1
2	6117	87.825525847562	1
2	6129	88.025525847562	1
2	6143	88.225525847562	1
2	6155	88.425525847562	1
2	6173	88.625525847562	1
2	6187	88.825525847562	1
2	6199	89.025525847562	1
2	6213	89.225525847562	1
2	6223	89.425525847562	1
2	6235	89.625525847562	1
2	6247	89.825525847562	1
2	6259	90.025525847562	1
2	6271	90.225525847562	1
2	6283	90.425525847562	1
2	6297	90.625525847562	1
2	6309	90.825525847562	1
2	6319	91.025525847562	1
2	6339	91.225525847562	1
2	6351	91.425525847562	1
2	6363	91.625525847562	1
2	6375	91.825525847562	1
2	6391	92.025525847562	1
2	6405	92.225525847562	1
2	6419	92.425525847562	1
2	6431	92.625525847562	1
2	6449	92.825525847562	1
2	6467	93.025525847562	1
2	6481	93.225525847562	1
2	6495	93.425525847562	1
2	6513	93.625525847562	1
2	6525	93.825525847562	1
2	6537	94.025525847562	1
2	6553	94.225525847562	1
2	6569	94.425525847562	1
2	6579	94.625525847562	1
2	6595	94.825525847562	1
2	6607	95.025525847562	1
2	6621	95.225525847562	1
2	6631	95.425525847562	1
2	6649	95.625525847562	1
2	6663	95.825525847562	1
2	6673	96.025525847562	1
2	6687	96.225525847562	1
2	6697	96.425525847562	1
2	6707	96.625525847562	1
2	6723	96.825525847562	1
2	6737	97.025525847562	1
2	6755	97.225525847562	1
2	6769	97.425525847562	1
2	6789	97.625525847562	1
2	6801	97.825525847562	1
2	6813	98.025525847562	1
2	6827	98.225525847562	1
2	6837	98.425525847562	1
2	6851	98.625525847562	1
2	6863	98.825525847562	1
2	6875	99.025525847562	1
2	6893	99.225525847562	1
2	6905	99.425525847562	1
2	6921	99.625525847562	1
2	6933	99.825525847562	1
2	6943	100.025525847562	1
2	6961	100.225525847562	1
2	6971	100.425525847562	1
2	6989	100.625525847562	1
2	7001	100.825525847562	1
2	7015	101.025525847562	1
2	7031	101.225525847562	1
2	7047	101.425525847562	1
2	7059	101.625525847562	1
2	7075	101.825525847562	1
2	7087	102.025525847562	1
2	7097	102.225525847562	1
2	7109	102.425525847562	1
2	7125	102.625525847562	1
2	7139	102.825525847562	1
2	7153	103.025525847562	1
2	7169	103.225525847562	1
2	7183	103.425525847562	1
2	7197	103.625525847562	1
2	7213	103.825525847562	1
2	7223	104.025525847562	1
2	7237	104.225525847562	1
2	7247	104.425525847562	1
2	7265	104.625525847562	1
2	7277	104.825525847562	1
2	7291	105.025525847562	1
2	7305	105.225525847562	1
2	7321	105.425525847562	1
2	7337	105.625525847562	1
2	7355	105.825525847562	1
2	7373	106.025525847562	1
2	7383	106.225525847562	1
2	7401	106.425525847562	1
2	7421	106.625525847562	1
2	7433	106.825525847562	1
2	7449	107.025525847562	1
2	7459	107.225525847562	1
2	7477	107.425525847562	1
2	7493	107.625525847562	1
2	7507	107.825525847562	1
2	7521	108.025525847562	1
2	7531	108.225525847562	1
2	7549	108.425525847562	1
2	7565	108.625525847562	1
2	7575	108.825525847562	1
2	7587	109.025525847562	1
2	7599	109.225525847562	1
2	7611	109.425525847562	1
2	7623	109.625525847562	1
2	7637	109.825525847562	1
2	7649	110.025525847562	1
2	7663	110.225525847562	1
2	7677	110.425525847562	1
2	7695	110.625525847562	1
2	7707	110.825525847562	1
2	7719	111.025525847562	1
2	7735	111.225525847562	1
2	7745	111.425525847562	1
2	7755	111.625525847562	1
2	7771	111.825525847562	1
2	7783	112.025525847562	1
2	7801	112.225525847562	1
2	7815	112.425525847562	1
2	7829	112.625525847562	1
2	7841	112.825525847562	1
2	7853	113.025525847562	1
2	7865	113.225525847562	1
2	7883	113.425525847562	1
2	7893	113.625525847562	1
2	7905	113.825525847562	1
2	7917	114.025525847562	1
2	7931	114.225525847562	1
2	7945	114.425525847562	1
2	7959	114.625525847562	1
2	7973	114.825525847562	1
2	7985	115.025525847562	1
2	7997	115.225525847562	1
2	8011	115.425525847562	1
2	8021	115.625525847562	1
2	8035	115.825525847562	1
2	8057	116.025525847562	1
2	8071	116.225525847562	1
2	8083	116.425525847562	1
2	8097	116.625525847562	1
2	8113	116.825525847562	1
2	8123	117.025525847562	1
2	8141	117.225525847562	1
2	8151	117.425525847562	1
2	8169	117.625525847562	1
2	8185	117.825525847562	1
2	8201	118.025525847562	1
2	8213	118.225525847562	1
2	8227	118.425525847562	1
2	8245	118.625525847562	1
2	8261	118.825525847562	1
2	8275	119.025525847562	1
2	8289	119.225525847562	1
2	8299	119.425525847562	1
2	8315	119.625525847562	1
2	8329	119.825525847562	1
2	8345	120.025525847562	1
2	8355	120.225525847562	1
2	8365	120.425525847562	1
2	8381	120.625525847562	1
2	8395	120.825525847562	1
2	8411	121.025525847562	1
2	8421	121.225525847562	1
2	8433	121.425525847562	1
2	8445	121.625525847562	1
2	8463	121.825525847562	1
2	8479	122.025525847562	1
2	8489	122.225525847562	1
2	8507	122.425525847562	1
2	8523	122.625525847562	1
2	8535	122.825525847562	1
2	8551	123.025525847562	1
2	8563	123.225525847562	1
2	8577	123.425525847562	1
2	8593	123.625525847562	1
2	8603	123.825525847562	1
2	8619	124.025525847562	1
2	8637	124.225525847562	1
2	8651	124.425525847562	1
2	8663	124.625525847562	1
2	8681	124.825525847562	1
2	8691	125.025525847562	1
2	8701	125.225525847562	1
2	8711	125.425525847562	1
2	8723	125.625525847562	1
2	8733	125.825525847562	1
2	8747	126.025525847562	1
2	8761	126.225525847562	1
2	8771	126.425525847562	1
2	8785	126.625525847562	1
2	8799	126.825525847562	1
2	8811	127.025525847562	1
2	8893	128.380012664167	1
2	8913	128.580012664167	1
2	8925	128.780012664167	1
2	8939	128.980012664167	1
2	8949	129.180012664167	1
2	8969	129.380012664167	1
2	8983	129.580012664167	1
2	8993	129.780012664167	1
2	9007	129.980012664167	1
2	9017	130.180012664167	1
2	9029	130.380012664167	1
2	9043	130.580012664167	1
2	9055	130.780012664167	1
2	9067	130.980012664167	1
2	9077	131.180012664167	1
2	9089	131.418295054888	1
2	9123	131.843559767573	1
2	9139	132.043559767573	1
2	9151	132.243559767573	1
2	9163	132.443559767573	1
2	9182	132.643559767573	1
2	9199	132.84650130489	1
2	9217	133.04650130489	1
2	9227	133.24650130489	1
2	9239	133.44650130489	1
2	9251	133.64650130489	1
2	9267	133.84650130489	1
2	9285	134.04650130489	1
2	9299	134.24650130489	1
2	9309	134.44650130489	1
2	9321	134.64650130489	1
2	9331	134.84650130489	1
2	9349	135.074781545182	1
2	9369	135.274781545182	1
2	9389	135.474781545182	1
2	9405	135.674781545182	1
2	9417	135.874781545182	1
2	9431	136.074781545182	1
2	9451	136.274781545182	1
2	9465	136.474781545182	1
2	9481	136.674781545182	1
2	9493	136.874781545182	1
2	9505	137.074781545182	1
2	9519	137.274781545182	1
2	9533	137.474781545182	1
2	9549	137.674781545182	1
2	9563	137.874781545182	1
2	9581	138.074781545182	1
2	9597	138.274781545182	1
2	9613	138.474781545182	1
2	9629	138.674781545182	1
2	9643	138.874781545182	1
2	9657	139.074781545182	1
2	9669	139.274781545182	1
2	9679	139.474781545182	1
2	9695	139.674781545182	1
2	9707	139.874781545182	1
2	9723	140.074781545182	1
2	9735	140.274781545182	1
2	9749	140.474781545182	1
2	9759	140.674781545182	1
2	9773	140.874781545182	1
2	9787	141.074781545182	1
2	9797	141.274781545182	1
2	9807	141.474781545182	1
2	9825	141.674781545182	1
2	9839	141.874781545182	1
2	9851	142.074781545182	1
2	9863	142.274781545182	1
2	9879	142.474781545182	1
2	9901	142.674781545182	1
2	9931	142.874781545182	1
2	9943	143.074781545182	1
2	9961	143.274781545182	1
2	9973	143.474781545182	1
2	9985	143.674781545182	1
2	9999	143.874781545182	1
2	10009	144.074781545182	1
2	10027	144.274781545182	1
2	10043	144.474781545182	1
2	10061	144.674781545182	1
2	10075	144.874781545182	1
2	10089	145.074781545182	1
2	10105	145.274781545182	1
2	10117	145.474781545182	1
2	10133	145.674781545182	1
2	10145	145.874781545182	1
2	10157	146.074781545182	1
2	10173	146.274781545182	1
2	10183	146.474781545182	1
2	10193	146.674781545182	1
2	10205	146.874781545182	1
2	10219	147.074781545182	1
2	10235	147.274781545182	1
2	10249	147.474781545182	1
2	10269	147.674781545182	1
2	10285	147.874781545182	1
2	10303	148.074781545182	1
2	10317	148.274781545182	1
2	10339	148.474781545182	1
2	10349	148.674781545182	1
2	10361	148.874781545182	1
2	10379	149.074781545182	1
2	10395	149.274781545182	1
2	10409	149.474781545182	1
2	10421	149.674781545182	1
2	10431	149.874781545182	1
2	10443	150.074781545182	1
2	10457	150.274781545182	1
2	10467	150.474781545182	1
2	10483	150.674781545182	1
2	10497	150.874781545182	1
2	10509	151.074781545182	1
2	10523	151.274781545182	1
2	10535	151.474781545182	1
2	10549	151.674781545182	1
2	10563	151.874781545182	1
2	10575	152.074781545182	1
2	10591	152.274781545182	1
2	10609	152.474781545182	1
2	10619	152.674781545182	1
2	10635	152.874781545182	1
2	10647	153.074781545182	1
2	10663	153.274781545182	1
2	10677	153.474781545182	1
2	10691	153.674781545182	1
2	10703	153.874781545182	1
2	10715	154.074781545182	1
2	10727	154.274781545182	1
2	10739	154.474781545182	1
2	10749	154.674781545182	1
2	10759	154.874781545182	1
2	10775	155.074781545182	1
2	10787	155.274781545182	1
2	10797	155.474781545182	1
2	10811	155.674781545182	1
2	10825	155.874781545182	1
2	10841	156.074781545182	1
2	10855	156.274781545182	1
2	10871	156.474781545182	1
2	10881	156.674781545182	1
2	10897	156.874781545182	1
2	10913	157.074781545182	1
2	10929	157.274781545182	1
2	10941	157.474781545182	1
2	10957	157.674781545182	1
2	10967	157.874781545182	1
2	10983	158.074781545182	1
2	10997	158.274781545182	1
2	11009	158.474781545182	1
2	11023	158.674781545182	1
2	11033	158.874781545182	1
2	11047	159.074781545182	1
2	11071	159.274781545182	1
2	11083	159.474781545182	1
2	11101	159.674781545182	1
2	11115	159.874781545182	1
2	11129	160.074781545182	1
2	11141	160.274781545182	1
2	11151	160.474781545182	1
2	11163	160.674781545182	1
2	11175	160.874781545182	1
2	11191	161.074781545182	1
2	11201	161.274781545182	1
2	11221	161.474781545182	1
2	11241	161.674781545182	1
2	11251	161.874781545182	1
2	11265	162.074781545182	1
2	11281	162.274781545182	1
2	11293	162.474781545182	1
2	11307	162.674781545182	1
2	11319	162.874781545182	1
2	11333	163.074781545182	1
2	11347	163.274781545182	1
2	11359	163.474781545182	1
2	11371	163.674781545182	1
2	11387	163.874781545182	1
2	11403	164.074781545182	1
2	11417	164.274781545182	1
2	11441	164.474781545182	1
2	11457	164.674781545182	1
2	11469	164.874781545182	1
2	11483	165.074781545182	1
2	11509	165.274781545182	1
2	11525	165.474781545182	1
2	11541	165.674781545182	1
2	11553	165.874781545182	1
2	11567	166.074781545182	1
2	11583	166.274781545182	1
2	11597	166.474781545182	1
2	11613	166.674781545182	1
2	11625	166.874781545182	1
2	11639	167.074781545182	1
2	11651	167.274781545182	1
2	11669	167.474781545182	1
2	11685	167.674781545182	1
2	11699	167.874781545182	1
2	11715	168.074781545182	1
2	11731	168.274781545182	1
2	11747	168.474781545182	1
2	11759	168.674781545182	1
2	11775	168.874781545182	1
2	11787	169.074781545182	1
2	11797	169.274781545182	1
2	11811	169.474781545182	1
2	11829	169.674781545182	1
2	11843	169.874781545182	1
2	11855	170.074781545182	1
2	11867	170.274781545182	1
2	11877	170.474781545182	1
2	11891	170.674781545182	1
2	11907	170.874781545182	1
2	11919	171.074781545182	1
2	11931	171.274781545182	1
2	11947	171.474781545182	1
2	11959	171.674781545182	1
2	11971	171.874781545182	1
2	11991	172.074781545182	1
2	12005	172.274781545182	1
2	12017	172.474781545182	1
2	12029	172.674781545182	1
2	12043	172.874781545182	1
2	12061	173.074781545182	1
2	12075	173.274781545182	1
2	12085	173.474781545182	1
2	12103	173.674781545182	1
2	12117	173.874781545182	1
2	12131	174.074781545182	1
2	12145	174.274781545182	1
2	12157	174.474781545182	1
2	12173	174.674781545182	1
2	12189	174.874781545182	1
2	12203	175.074781545182	1
2	12217	175.274781545182	1
2	12235	175.474781545182	1
2	12247	175.674781545182	1
2	12259	175.874781545182	1
2	12269	176.074781545182	1
2	12285	176.274781545182	1
2	12301	176.474781545182	1
2	12317	176.674781545182	1
2	12331	176.874781545182	1
2	12343	177.074781545182	1
2	12359	177.274781545182	1
2	12371	177.474781545182	1
2	12381	177.674781545182	1
2	12395	177.874781545182	1
2	12407	178.074781545182	1
2	12419	178.274781545182	1
2	12429	178.474781545182	1
2	12439	178.674781545182	1
2	12451	178.874781545182	1
2	12471	179.074781545182	1
2	12487	179.274781545182	1
2	12505	179.474781545182	1
2	12519	179.674781545182	1
2	12531	179.874781545182	1
2	12543	180.074781545182	1
2	12557	180.274781545182	1
2	12573	180.474781545182	1
2	12585	180.674781545182	1
2	12597	180.874781545182	1
2	12615	181.074781545182	1
2	12631	181.274781545182	1
2	12645	181.474781545182	1
2	12657	181.674781545182	1
2	12671	181.874781545182	1
2	12681	182.074781545182	1
2	12699	182.274781545182	1
2	12715	182.474781545182	1
2	12727	182.674781545182	1
2	12743	182.874781545182	1
2	12753	183.074781545182	1
2	12769	183.274781545182	1
2	12781	183.474781545182	1
2	12795	183.674781545182	1
2	12811	183.874781545182	1
2	12825	184.074781545182	1
2	12835	184.274781545182	1
2	12847	184.474781545182	1
2	12863	184.674781545182	1
2	12873	184.874781545182	1
2	12887	185.074781545182	1
2	12901	185.274781545182	1
2	12917	185.474781545182	1
2	12931	185.674781545182	1
2	12945	185.874781545182	1
2	12957	186.074781545182	1
2	12975	186.274781545182	1
2	12985	186.474781545182	1
2	12997	186.674781545182	1
2	13011	186.874781545182	1
2	13025	187.074781545182	1
2	13041	187.274781545182	1
2	13059	187.474781545182	1
2	13073	187.674781545182	1
2	13085	187.874781545182	1
2	13101	188.074781545182	1
2	13113	188.274781545182	1
2	13125	188.474781545182	1
2	13135	188.674781545182	1
2	13151	188.874781545182	1
2	13163	189.074781545182	1
2	13177	189.274781545182	1
2	13197	189.474781545182	1
2	13211	189.674781545182	1
2	13223	189.874781545182	1
2	13233	190.074781545182	1
2	13249	190.274781545182	1
2	13267	190.474781545182	1
2	13279	190.674781545182	1
2	13291	190.874781545182	1
2	13307	191.074781545182	1
2	13319	191.274781545182	1
2	13331	191.474781545182	1
2	13341	191.674781545182	1
2	13355	191.874781545182	1
2	13367	192.074781545182	1
2	13383	192.274781545182	1
2	13401	192.474781545182	1
2	13415	192.674781545182	1
2	13427	192.874781545182	1
2	13441	193.074781545182	1
2	13453	193.274781545182	1
2	13471	193.474781545182	1
2	13485	193.674781545182	1
2	13499	193.874781545182	1
2	13517	194.074781545182	1
2	13527	194.274781545182	1
2	13541	194.474781545182	1
2	13559	194.674781545182	1
2	13571	194.874781545182	1
2	13583	195.074781545182	1
2	13597	195.274781545182	1
2	13611	195.474781545182	1
2	13621	195.674781545182	1
2	13633	195.874781545182	1
2	13647	196.074781545182	1
2	13661	196.274781545182	1
2	13671	196.474781545182	1
2	13681	196.674781545182	1
2	13691	196.874781545182	1
2	13703	197.074781545182	1
2	13719	197.274781545182	1
2	13735	197.474781545182	1
2	13749	197.674781545182	1
2	13763	197.874781545182	1
2	13775	198.074781545182	1
2	13789	198.274781545182	1
2	13805	198.474781545182	1
2	13819	198.674781545182	1
2	13831	198.874781545182	1
2	13843	199.074781545182	1
2	13859	199.274781545182	1
2	13871	199.474781545182	1
2	13883	199.674781545182	1
2	13901	199.874781545182	1
3	1	0.079587450457	1
3	4	0.169443489305	1
3	14	0.29503656511	1
3	24	0.480996986317	1
3	29	0.573319299464	1
3	40	0.768473833052	1
3	45	0.84719394705	1
3	56	1.03509035247	1
3	63	1.090195201137	1
3	68	1.187895843776	1
3	76	1.291711773842	1
3	82	1.340224590214	1
3	84	1.397776509902	1
3	86	1.433092423816	1
3	102	1.65544486602	1
3	104	1.661283332929	1
3	122	1.992774560922	1
3	125	2.024610175006	1
3	129	2.072970385501	1
3	136	2.137915020326	1
3	148	2.294804632088	1
3	154	2.46202575212	1
3	162	2.537293163451	1
3	168	2.602681420173	1
3	172	2.686624705463	1
3	178	2.736511906365	1
3	194	2.99633731495	1
3	204	3.177174241377	1
3	207	3.184542776924	1
3	211	3.225700576548	1
3	213	3.23481667916	1
3	220	3.339277929991	1
3	222	3.341320488831	1
3	228	3.387245302557	1
3	236	3.565994068901	1
3	258	3.881011061769	1
3	264	4.031589487633	1
3	266	4.046712572999	1
3	278	4.250743998793	1
3	290	4.454833220384	1
3	304	4.839355407298	1
3	309	4.903526324566	1
3	318	5.064050280272	1
3	328	5.225450487761	1
3	335	5.287343433724	1
3	340	5.360839875843	1
3	348	5.512493473242	1
3	358	5.626087367413	1
3	361	5.638674808357	1
3	370	5.766197578579	1
3	376	5.868340766014	1
3	384	5.955572885518	1
3	386	5.971045853568	1
3	392	6.048129319415	1
3	410	6.337571367214	1
3	418	6.479707835223	1
3	425	6.553490564399	1
3	427	6.564685180462	1
3	432	6.618241752485	1
3	440	6.682411222688	1
3	442	6.713139257903	1
3	444	6.733759586106	1
3	456	6.882585068681	1
3	462	7.016114087143	1
3	464	7.077022329461	1
3	472	7.101427178535	1
3	478	7.185460649096	1
3	480	7.199988451825	1
3	482	7.201885308745	1
3	484	7.241062389813	1
3	492	7.33720048372	1
3	494	7.353414132665	1
3	500	7.448113800382	1
3	502	7.473257993589	1
3	510	7.569212791326	1
3	516	7.618068496257	1
3	534	7.905859998385	1
3	546	8.138751335806	1
3	552	8.253265231276	1
3	560	8.313039838958	1
3	562	8.357591688463	1
3	568	8.452541146813	1
3	576	8.509994387487	1
3	588	8.742629493656	1
3	594	8.862240273602	1
3	596	8.87269639618	1
3	598	8.878907925227	1
3	620	9.228929293672	1
3	628	9.338820540427	1
3	634	9.444703953576	1
3	642	9.555763698145	1
3	644	9.574506304747	1
3	650	9.598126975355	1
3	652	9.642467378217	1
3	654	9.65627024706	1
3	666	9.795174516039	1
3	668	9.833070712467	1
3	676	9.926676868444	1
3	678	9.971887074466	1
3	684	10.011198330196	1
3	692	10.095641109549	1
3	694	10.09955942519	1
3	696	10.157291856271	1
3	702	10.257878956788	1
3	730	10.703328641406	1
3	746	11.022623305611	1
3	748	11.033386816427	1
3	756	11.139169457762	1
3	758	11.16259960964	1
3	764	11.263401534182	1
3	772	11.280992888725	1
3	798	11.817002923749	1
3	806	11.922877195258	1
3	812	12.010068780621	1
3	814	12.039276833948	1
3	822	12.092783301656	1
3	824	12.155577459755	1
3	830	12.219955559915	1
3	832	12.247983260763	1
3	840	12.34566966817	1
3	842	12.362982413785	1
3	848	12.404232536777	1
3	850	12.415928077756	1
3	858	12.528244907909	1
3	864	12.635052127624	1
3	866	12.673207711961	1
3	874	12.688078938886	1
3	880	12.838742472213	1
3	882	12.860630531864	1
3	900	13.159349521049	1
3	906	13.205350916823	1
3	914	13.313977854911	1
3	926	13.486011020683	1
3	928	13.487377478526	1
3	930	13.497591966678	1
3	936	13.595102160094	1
3	944	13.777084052022	1
3	956	13.889065488597	1
3	958	13.899168966128	1
3	974	14.256527803362	1
3	996	14.63143094932	1
3	1008	14.841963079399	1
3	1016	14.905196739039	1
3	1018	14.976455098372	1
3	1040	15.352647826822	1
3	1042	15.358380519464	1
3	1048	15.451228369154	1
3	1056	15.511223057818	1
3	1062	15.645647585033	1
3	1064	15.647666597848	1
3	1066	15.651664227754	1
3	1074	15.709952066641	1
3	1076	15.743193090737	1
3	1098	16.132350103022	1
3	1100	16.145155779553	1
3	1106	16.189697725745	1
3	1108	16.224815334683	1
3	1116	16.290379963119	1
3	1118	16.303018826762	1
3	1124	16.419706179417	1
3	1126	16.457976274303	1
3	1138	16.670399994003	1
3	1146	16.723888431579	1
3	1158	16.974279609888	1
3	1164	16.980909350036	1
3	1166	17.005348894844	1
3	1174	17.123267847551	1
3	1180	17.206552199158	1
3	1188	17.290161952355	1
3	1200	17.490486004606	1
3	1202	17.521327488616	1
3	1208	17.592452282338	1
3	1210	17.666528177383	1
3	1228	17.915086413081	1
3	1230	17.924951443923	1
3	1242	18.178981894719	1
3	1248	18.264771458826	1
3	1250	18.27344850706	1
3	1268	18.538374099928	1
3	1270	18.570908141481	1
3	1276	18.609264162891	1
3	1278	18.610204237957	1
3	1286	18.720288828966	1
3	1298	18.905021594066	1
3	1300	18.919154665422	1
3	1306	19.02333273084	1
3	1314	19.149326111851	1
3	1326	19.333454359	1
3	1328	19.367619775703	1
3	1334	19.398371548079	1
3	1336	19.418606591936	1
3	1338	19.469326604262	1
3	1346	19.557639508458	1
3	1352	19.638119248438	1
3	1354	19.640150494318	1
3	1356	19.658175719516	1
3	1368	19.834749826757	1
3	1376	19.880922916361	1
3	1378	19.88139357041	1
3	1380	19.897227721033	1
3	1386	20.01049113523	1
3	1394	20.094799438445	1
3	1396	20.12627160453	1
3	1402	20.247922469874	1
3	1414	20.380798257249	1
3	1416	20.414832931073	1
3	1434	20.742347248844	1
3	1440	20.799137664192	1
3	1442	20.827739761443	1
3	1450	20.968842202372	1
3	1456	21.054681499155	1
3	1464	21.105115879814	1
3	1470	21.194774966893	1
3	1482	21.421148324479	1
3	1490	21.506070405635	1
3	1496	21.607936278637	1
3	1498	21.633178277926	1
3	1510	21.855328967773	1
3	1528	22.160557133461	1
3	1534	22.274517929814	1
3	1542	22.333780332559	1
3	1548	22.393418271992	1
3	1560	22.580764259978	1
3	1578	22.965064918302	1
3	1590	23.085288775027	1
3	1592	23.097641439763	1
3	1594	23.13294345309	1
3	1600	23.278625308946	1
3	1612	23.446717529401	1
3	1620	23.499789779063	1
3	1622	23.550291653838	1
3	1628	23.662819855522	1
3	1640	23.875769795129	1
3	1648	23.904510842736	1
3	1654	23.991564425369	1
3	1656	24.02913830961	1
3	1668	24.242621354608	1
3	1686	24.579058399913	1
3	1698	24.696996693277	1
3	1704	24.785782834321	1
3	1712	24.914973761201	1
3	1718	25.022757249615	1
3	1726	25.092337195705	1
3	1728	25.168523972835	1
3	1748	25.481070808601	1
3	1751	25.507276532769	1
3	1756	25.610556233834	1
3	1758	25.66078731366	1
3	1766	25.715926912673	1
3	1772	25.812372269222	1
3	1780	25.905612557263	1
3	1782	25.970023028095	1
3	1784	25.97196100623	1
3	1790	26.035473777793	1
3	1792	26.07136649938	1
3	1804	26.197270851106	1
3	1812	26.305202870972	1
3	1814	26.33916934423	1
3	1816	26.3734293067	1
3	1822	26.421792875359	1
3	1830	26.518030380936	1
3	1836	26.65632830159	1
3	1844	26.712324408597	1
3	1856	26.923069169092	1
3	1858	26.937626566937	1
3	1860	26.948481276786	1
3	1866	26.983903690011	1
3	1868	26.993595965469	1
3	1870	27.077984812728	1
3	1878	27.121687614105	1
3	1884	27.211060521936	1
3	1892	27.291315720512	1
3	1894	27.376723694076	1
3	1896	27.380144035912	1
3	1908	27.48604497445	1
3	1924	27.833298522378	1
3	1932	27.938883483244	1
3	1934	27.977596492459	1
3	1940	28.034057542571	1
3	1942	28.059065692069	1
3	1960	28.285929091338	1
3	1962	28.301158453863	1
3	1964	28.346975742259	1
3	1966	28.357207803744	1
3	1972	28.414453958887	1
3	1994	28.828234934938	1
3	2006	29.050726400661	1
3	2010	29.080882991983	1
3	2020	29.244972749776	1
3	2028	29.321980435731	1
3	2034	29.443682385265	1
3	2042	29.503089735097	1
3	2044	29.51365099946	1
3	2046	29.52413918302	1
3	2058	29.776067396028	1
3	2064	29.819501961622	1
3	2072	29.944762714113	1
3	2078	30.008108975885	1
3	2116	30.684648027879	1
3	2122	30.868621306387	1
3	2130	30.884808315058	1
3	2142	31.119826044033	1
3	2154	31.322416925743	1
3	2157	31.326245217031	1
3	2159	31.343977774546	1
3	2163	31.414969567268	1
3	2170	31.51056620966	1
3	2176	31.528820069848	1
3	2178	31.542038440809	1
3	2186	31.69302078637	1
3	2198	31.881413675029	1
3	2210	32.081612324582	1
3	2220	32.246284234715	1
3	2224	32.299284522529	1
3	2230	32.383472618702	1
3	2232	32.398551719721	1
3	2238	32.45083872273	1
3	2240	32.454217401285	1
3	2242	32.461384939716	1
3	2264	32.866369623596	1
3	2272	32.985913480224	1
3	2278	33.032640736865	1
3	2282	33.09307064405	1
3	2288	33.147556356864	1
3	2294	33.275589777245	1
3	2298	33.280781032463	1
3	2310	33.482058306084	1
3	2316	33.527549490563	1
3	2334	33.898545549753	1
3	2336	33.900222326352	1
3	2348	34.093880050101	1
3	2350	34.120112981018	1
3	2352	34.12129130421	1
3	2362	34.266070712409	1
3	2366	34.310695994461	1
3	2382	34.599157169671	1
3	2394	34.730087006073	1
3	2402	34.868716141275	1
3	2407	34.887545638797	1
3	2409	34.929006893063	1
3	2416	35.002620003062	1
3	2422	35.069866054745	1
3	2424	35.075453060034	1
3	2428	35.116850952301	1
3	2430	35.139164873111	1
3	2432	35.158947823857	1
3	2434	35.160817370899	1
3	2440	35.179569266019	1
3	2448	35.33741053823	1
3	2454	35.399670272628	1
3	2456	35.425020843142	1
3	2468	35.632623949186	1
3	2474	35.674989659322	1
3	2488	35.963444088163	1
3	2504	36.226665974418	1
3	2512	36.32037984619	1
3	2518	36.442259526524	1
3	2526	36.533055929256	1
3	2528	36.536291609721	1
3	2540	36.689374732348	1