version 3
run General-0-20230511-18:58:02-888
attr configname General
attr datetime 20230511-18:58:02
attr datetimef 20230511-185802
attr experiment General
attr inifile omnetpp.ini
attr iterationvars ""
attr iterationvarsd ""
attr iterationvarsf ""
attr measurement ""
attr network Network
attr processid 888
attr repetition 0
attr replication #0
attr resultdir results
attr runnumber 0
attr seedset 0
config network Network
config sim-time-limit 200s
config Network.gen.generationInterval exponential(0.001)
config Network.queue.serviceTime exponential(0.001)
config Network.nodeTx.gen.generationInterval exponential(0.1)
config Network.nodeTx.gen.packetByteSize 12500
config Network.queue.bufferSize 200
config Network.nodeRx.queue.bufferSize 200
config Network.nodeTx.queue.bufferSize 2000000
config cmdenv-interactive true

vector 0 Network.nodeTx.queue PacketDropQueue ETV
vector 1 Network.queue PacketDropQueue ETV
vector 2 Network.nodeRx.queue PacketDropQueue ETV
vector 3 Network.nodeTx.gen PacketGen ETV
vector 4 Network.nodeTx.queue BufferSizeQueue ETV
vector 5 Network.queue BufferSizeQueue ETV
vector 6 Network.nodeRx.queue BufferSizeQueue ETV
vector 7 Network.nodeRx.sink Delay ETV
vector 8 Network.nodeRx.sink PacketUsed ETV
0	0	0	0
1	0	0	0
1	2756	42.881753423165	1
1	2765	43.081753423165	1
1	2774	43.281753423165	1
1	2791	43.481753423165	1
1	2802	43.681753423165	1
1	2819	43.881753423165	1
1	2832	44.081753423165	1
1	2843	44.281753423165	1
1	2854	44.481753423165	1
1	2869	44.681753423165	1
1	2882	44.881753423165	1
1	2895	45.081753423165	1
1	2908	45.281753423165	1
1	2923	45.481753423165	1
1	2936	45.681753423165	1
1	2947	45.881753423165	1
1	2960	46.081753423165	1
1	2969	46.281753423165	1
1	2982	46.481753423165	1
1	2997	46.681753423165	1
1	3008	46.881753423165	1
1	3022	47.124122061063	1
1	3033	47.324122061063	1
1	3058	47.693711538692	1
1	3072	47.900351525779	1
1	3089	48.100351525779	1
1	3104	48.300351525779	1
1	3117	48.500351525779	1
1	3136	48.700351525779	1
1	3147	48.900351525779	1
1	3158	49.100351525779	1
1	3173	49.300351525779	1
1	3190	49.500351525779	1
1	3203	49.700351525779	1
1	3218	49.900351525779	1
1	3231	50.100351525779	1
1	3252	50.300351525779	1
1	3263	50.500351525779	1
1	3276	50.700351525779	1
1	3287	50.900351525779	1
1	3300	51.100351525779	1
1	3311	51.300351525779	1
1	3326	51.500351525779	1
1	3339	51.700351525779	1
1	3354	51.900351525779	1
1	3363	52.100351525779	1
1	3382	52.300351525779	1
1	3401	52.500351525779	1
1	3410	52.700351525779	1
1	3425	52.900351525779	1
1	3436	53.100351525779	1
1	3447	53.300351525779	1
1	3456	53.500351525779	1
1	3469	53.700351525779	1
1	3486	53.900351525779	1
1	3501	54.100351525779	1
1	3510	54.300351525779	1
1	3521	54.500351525779	1
1	3532	54.700351525779	1
1	3543	54.900351525779	1
1	3558	55.100351525779	1
1	3567	55.300351525779	1
1	3582	55.500351525779	1
1	3593	55.700351525779	1
1	3602	55.900351525779	1
1	3615	56.100351525779	1
1	3626	56.300351525779	1
1	3637	56.500351525779	1
1	3650	56.700351525779	1
1	3663	56.900351525779	1
1	3674	57.100351525779	1
1	3687	57.300351525779	1
1	3698	57.500351525779	1
1	3713	57.700351525779	1
1	3726	57.900351525779	1
1	3735	58.100351525779	1
1	3748	58.300351525779	1
1	3762	58.508510483143	1
1	3773	58.708510483143	1
1	3851	60.102278997619	1
1	3868	60.302278997619	1
1	3883	60.502278997619	1
1	3892	60.702278997619	1
1	3907	60.902278997619	1
1	3918	61.102278997619	1
1	3929	61.302278997619	1
1	3940	61.502278997619	1
1	3951	61.702278997619	1
1	3962	61.902278997619	1
1	3973	62.102278997619	1
1	4001	62.525425847562	1
1	4018	62.725425847562	1
1	4031	62.925425847562	1
1	4044	63.125425847562	1
1	4057	63.325425847562	1
1	4068	63.525425847562	1
1	4085	63.725425847562	1
1	4100	63.925425847562	1
1	4115	64.125425847562	1
1	4128	64.325425847562	1
1	4141	64.525425847562	1
1	4156	64.725425847562	1
1	4169	64.925425847562	1
1	4180	65.125425847562	1
1	4193	65.325425847562	1
1	4212	65.525425847562	1
1	4229	65.725425847562	1
1	4244	65.925425847562	1
1	4259	66.125425847562	1
1	4272	66.325425847562	1
1	4285	66.525425847562	1
1	4298	66.725425847562	1
1	4313	66.925425847562	1
1	4328	67.125425847562	1
1	4343	67.325425847562	1
1	4354	67.525425847562	1
1	4365	67.725425847562	1
1	4378	67.925425847562	1
1	4399	68.125425847562	1
1	4410	68.325425847562	1
1	4427	68.525425847562	1
1	4440	68.725425847562	1
1	4453	68.925425847562	1
1	4464	69.125425847562	1
1	4479	69.325425847562	1
1	4492	69.525425847562	1
1	4505	69.725425847562	1
1	4520	69.925425847562	1
1	4529	70.125425847562	1
1	4544	70.325425847562	1
1	4557	70.525425847562	1
1	4572	70.725425847562	1
1	4589	70.925425847562	1
1	4604	71.125425847562	1
1	4623	71.325425847562	1
1	4632	71.525425847562	1
1	4649	71.725425847562	1
1	4660	71.925425847562	1
1	4675	72.125425847562	1
1	4686	72.325425847562	1
1	4697	72.525425847562	1
1	4712	72.725425847562	1
1	4723	72.925425847562	1
1	4734	73.125425847562	1
1	4749	73.325425847562	1
1	4762	73.525425847562	1
1	4775	73.725425847562	1
1	4788	73.925425847562	1
1	4801	74.125425847562	1
1	4816	74.325425847562	1
1	4829	74.525425847562	1
1	4844	74.725425847562	1
1	4857	74.925425847562	1
1	4866	75.125425847562	1
1	4883	75.325425847562	1
1	4894	75.525425847562	1
1	4905	75.725425847562	1
1	4916	75.925425847562	1
1	4931	76.125425847562	1
1	4940	76.325425847562	1
1	4953	76.525425847562	1
1	4964	76.725425847562	1
1	4977	76.925425847562	1
1	4988	77.125425847562	1
1	4999	77.325425847562	1
1	5008	77.525425847562	1
1	5019	77.725425847562	1
1	5036	77.925425847562	1
1	5051	78.125425847562	1
1	5060	78.325425847562	1
1	5073	78.525425847562	1
1	5084	78.725425847562	1
1	5099	78.925425847562	1
1	5110	79.125425847562	1
1	5125	79.325425847562	1
1	5136	79.525425847562	1
1	5151	79.725425847562	1
1	5168	79.925425847562	1
1	5181	80.125425847562	1
1	5196	80.325425847562	1
1	5205	80.525425847562	1
1	5220	80.725425847562	1
1	5231	80.925425847562	1
1	5244	81.125425847562	1
1	5257	81.325425847562	1
1	5278	81.525425847562	1
1	5289	81.725425847562	1
1	5308	81.925425847562	1
1	5325	82.125425847562	1
1	5344	82.325425847562	1
1	5361	82.525425847562	1
1	5374	82.725425847562	1
1	5383	82.925425847562	1
1	5398	83.125425847562	1
1	5407	83.325425847562	1
1	5420	83.525425847562	1
1	5429	83.725425847562	1
1	5438	83.925425847562	1
1	5457	84.125425847562	1
1	5468	84.325425847562	1
1	5479	84.525425847562	1
1	5494	84.725425847562	1
1	5503	84.925425847562	1
1	5512	85.125425847562	1
1	5529	85.325425847562	1
1	5540	85.525425847562	1
1	5557	85.725425847562	1
1	5572	85.925425847562	1
1	5585	86.125425847562	1
1	5596	86.325425847562	1
1	5609	86.525425847562	1
1	5620	86.725425847562	1
1	5635	86.925425847562	1
1	5648	87.125425847562	1
1	5661	87.325425847562	1
1	5676	87.525425847562	1
1	5687	87.725425847562	1
1	5698	87.925425847562	1
1	5709	88.125425847562	1
1	5720	88.325425847562	1
1	5735	88.525425847562	1
1	5752	88.725425847562	1
1	5761	88.925425847562	1
1	5772	89.125425847562	1
1	5785	89.325425847562	1
1	5794	89.525425847562	1
1	5807	89.725425847562	1
1	5816	89.925425847562	1
1	5829	90.125425847562	1
1	5838	90.325425847562	1
1	5849	90.525425847562	1
1	5864	90.725425847562	1
1	5873	90.925425847562	1
1	5884	91.125425847562	1
1	5903	91.325425847562	1
1	5912	91.525425847562	1
1	5923	91.725425847562	1
1	5938	91.925425847562	1
1	5953	92.125425847562	1
1	5964	92.325425847562	1
1	5977	92.525425847562	1
1	5988	92.725425847562	1
1	6007	92.925425847562	1
1	6022	93.125425847562	1
1	6035	93.325425847562	1
1	6050	93.525425847562	1
1	6065	93.725425847562	1
1	6076	93.925425847562	1
1	6091	94.125425847562	1
1	6104	94.325425847562	1
1	6115	94.525425847562	1
1	6128	94.725425847562	1
1	6141	94.925425847562	1
1	6152	95.125425847562	1
1	6163	95.325425847562	1
1	6176	95.525425847562	1
1	6189	95.725425847562	1
1	6202	95.925425847562	1
1	6215	96.125425847562	1
1	6224	96.325425847562	1
1	6233	96.525425847562	1
1	6244	96.725425847562	1
1	6257	96.925425847562	1
1	6274	97.125425847562	1
1	6291	97.325425847562	1
1	6306	97.525425847562	1
1	6321	97.725425847562	1
1	6330	97.925425847562	1
1	6341	98.125425847562	1
1	6354	98.325425847562	1
1	6363	98.525425847562	1
1	6378	98.725425847562	1
1	6387	98.925425847562	1
1	6402	99.125425847562	1
1	6415	99.325425847562	1
1	6430	99.525425847562	1
1	6443	99.725425847562	1
1	6452	99.925425847562	1
1	6467	100.125425847562	1
1	6478	100.325425847562	1
1	6489	100.525425847562	1
1	6504	100.725425847562	1
1	6517	100.925425847562	1
1	6534	101.125425847562	1
1	6543	101.325425847562	1
1	6558	101.525425847562	1
1	6573	101.725425847562	1
1	6584	101.925425847562	1
1	6595	102.125425847562	1
1	6604	102.325425847562	1
1	6615	102.525425847562	1
1	6630	102.725425847562	1
1	6647	102.925425847562	1
1	6656	103.125425847562	1
1	6673	103.325425847562	1
1	6688	103.525425847562	1
1	6701	103.725425847562	1
1	6712	103.925425847562	1
1	6723	104.125425847562	1
1	6734	104.325425847562	1
1	6747	104.525425847562	1
1	6762	104.725425847562	1
1	6775	104.925425847562	1
1	6786	105.125425847562	1
1	6803	105.325425847562	1
1	6816	105.525425847562	1
1	6829	105.725425847562	1
1	6848	105.925425847562	1
1	6861	106.125425847562	1
1	6876	106.325425847562	1
1	6895	106.525425847562	1
1	6906	106.725425847562	1
1	6923	106.925425847562	1
1	6932	107.125425847562	1
1	6945	107.325425847562	1
1	6962	107.525425847562	1
1	6975	107.725425847562	1
1	6988	107.925425847562	1
1	6999	108.125425847562	1
1	7010	108.325425847562	1
1	7027	108.525425847562	1
1	7040	108.725425847562	1
1	7049	108.925425847562	1
1	7062	109.125425847562	1
1	7073	109.325425847562	1
1	7082	109.525425847562	1
1	7093	109.725425847562	1
1	7106	109.925425847562	1
1	7121	110.125425847562	1
1	7132	110.325425847562	1
1	7145	110.525425847562	1
1	7160	110.725425847562	1
1	7171	110.925425847562	1
1	7186	111.125425847562	1
1	7197	111.325425847562	1
1	7206	111.525425847562	1
1	7219	111.725425847562	1
1	7232	111.925425847562	1
1	7247	112.125425847562	1
1	7260	112.325425847562	1
1	7273	112.525425847562	1
1	7284	112.725425847562	1
1	7295	112.925425847562	1
1	7306	113.125425847562	1
1	7319	113.325425847562	1
1	7334	113.525425847562	1
1	7343	113.725425847562	1
1	7356	113.925425847562	1
1	7367	114.125425847562	1
1	7382	114.325425847562	1
1	7391	114.525425847562	1
1	7408	114.725425847562	1
1	7417	114.925425847562	1
1	7430	115.125425847562	1
1	7443	115.325425847562	1
1	7452	115.525425847562	1
1	7465	115.725425847562	1
1	7480	115.925425847562	1
1	7499	116.125425847562	1
1	7508	116.325425847562	1
1	7523	116.525425847562	1
1	7534	116.725425847562	1
1	7547	116.925425847562	1
1	7558	117.125425847562	1
1	7573	117.325425847562	1
1	7584	117.525425847562	1
1	7601	117.725425847562	1
1	7618	117.925425847562	1
1	7631	118.125425847562	1
1	7642	118.325425847562	1
1	7653	118.525425847562	1
1	7674	118.725425847562	1
1	7685	118.925425847562	1
1	7698	119.125425847562	1
1	7711	119.325425847562	1
1	7724	119.525425847562	1
1	7737	119.725425847562	1
1	7754	119.925425847562	1
1	7763	120.125425847562	1
1	7772	120.325425847562	1
1	7781	120.525425847562	1
1	7798	120.725425847562	1
1	7815	120.925425847562	1
1	7824	121.125425847562	1
1	7835	121.325425847562	1
1	7844	121.525425847562	1
1	7857	121.725425847562	1
1	7872	121.925425847562	1
1	7887	122.125425847562	1
1	7900	122.325425847562	1
1	7917	122.525425847562	1
1	7930	122.725425847562	1
1	7941	122.925425847562	1
1	7956	123.125425847562	1
1	7967	123.325425847562	1
1	7982	123.525425847562	1
1	7993	123.725425847562	1
1	8004	123.925425847562	1
1	8021	124.125425847562	1
1	8036	124.325425847562	1
1	8047	124.525425847562	1
1	8060	124.725425847562	1
1	8075	124.925425847562	1
1	8084	125.125425847562	1
1	8093	125.325425847562	1
1	8104	125.525425847562	1
1	8113	125.725425847562	1
1	8124	125.925425847562	1
1	8137	126.125425847562	1
1	8148	126.325425847562	1
1	8159	126.525425847562	1
1	8172	126.725425847562	1
1	8185	126.925425847562	1
1	8262	128.279912664167	1
1	8283	128.479912664167	1
1	8296	128.679912664167	1
1	8307	128.879912664167	1
1	8320	129.079912664167	1
1	8331	129.279912664167	1
1	8350	129.479912664167	1
1	8361	129.679912664167	1
1	8372	129.879912664167	1
1	8383	130.079912664167	1
1	8394	130.279912664167	1
1	8407	130.479912664167	1
1	8416	130.679912664167	1
1	8429	130.879912664167	1
1	8438	131.079912664167	1
1	8450	131.318195054888	1
1	8480	131.743459767573	1
1	8491	131.943459767573	1
1	8506	132.143459767573	1
1	8515	132.343459767573	1
1	8526	132.543459767573	1
1	8548	132.74640130489	1
1	8567	132.94640130489	1
1	8576	133.14640130489	1
1	8587	133.34640130489	1
1	8598	133.54640130489	1
1	8607	133.74640130489	1
1	8628	133.94640130489	1
1	8643	134.14640130489	1
1	8652	134.34640130489	1
1	8663	134.54640130489	1
1	8672	134.74640130489	1
1	8688	134.974681545182	1
1	8703	135.174681545182	1
1	8720	135.374681545182	1
1	8739	135.574681545182	1
1	8750	135.774681545182	1
1	8763	135.974681545182	1
1	8778	136.174681545182	1
1	8795	136.374681545182	1
1	8810	136.574681545182	1
1	8823	136.774681545182	1
1	8832	136.974681545182	1
1	8845	137.174681545182	1
1	8858	137.374681545182	1
1	8875	137.574681545182	1
1	8888	137.774681545182	1
1	8901	137.974681545182	1
1	8918	138.174681545182	1
1	8929	138.374681545182	1
1	8946	138.574681545182	1
1	8961	138.774681545182	1
1	8976	138.974681545182	1
1	8985	139.174681545182	1
1	8996	139.374681545182	1
1	9009	139.574681545182	1
1	9020	139.774681545182	1
1	9031	139.974681545182	1
1	9048	140.174681545182	1
1	9057	140.374681545182	1
1	9070	140.574681545182	1
1	9081	140.774681545182	1
1	9092	140.974681545182	1
1	9105	141.174681545182	1
1	9114	141.374681545182	1
1	9127	141.574681545182	1
1	9140	141.774681545182	1
1	9153	141.974681545182	1
1	9164	142.174681545182	1
1	9179	142.374681545182	1
1	9196	142.574681545182	1
1	9225	142.774681545182	1
1	9240	142.974681545182	1
1	9257	143.174681545182	1
1	9268	143.374681545182	1
1	9279	143.574681545182	1
1	9290	143.774681545182	1
1	9303	143.974681545182	1
1	9320	144.174681545182	1
1	9333	144.374681545182	1
1	9352	144.574681545182	1
1	9363	144.774681545182	1
1	9378	144.974681545182	1
1	9387	145.174681545182	1
1	9404	145.374681545182	1
1	9417	145.574681545182	1
1	9428	145.774681545182	1
1	9439	145.974681545182	1
1	9452	146.174681545182	1
1	9465	146.374681545182	1
1	9474	146.574681545182	1
1	9485	146.774681545182	1
1	9496	146.974681545182	1
1	9509	147.174681545182	1
1	9524	147.374681545182	1
1	9541	147.574681545182	1
1	9560	147.774681545182	1
1	9573	147.974681545182	1
1	9588	148.174681545182	1
1	9605	148.374681545182	1
1	9620	148.574681545182	1
1	9629	148.774681545182	1
1	9644	148.974681545182	1
1	9659	149.174681545182	1
1	9674	149.374681545182	1
1	9685	149.574681545182	1
1	9696	149.774681545182	1
1	9705	149.974681545182	1
1	9718	150.174681545182	1
1	9729	150.374681545182	1
1	9740	150.574681545182	1
1	9753	150.774681545182	1
1	9766	150.974681545182	1
1	9781	151.174681545182	1
1	9790	151.374681545182	1
1	9805	151.574681545182	1
1	9814	151.774681545182	1
1	9827	151.974681545182	1
1	9838	152.174681545182	1
1	9861	152.374681545182	1
1	9870	152.574681545182	1
1	9881	152.774681545182	1
1	9894	152.974681545182	1
1	9907	153.174681545182	1
1	9922	153.374681545182	1
1	9937	153.574681545182	1
1	9948	153.774681545182	1
1	9959	153.974681545182	1
1	9968	154.174681545182	1
1	9979	154.374681545182	1
1	9990	154.574681545182	1
1	9999	154.774681545182	1
1	10010	154.974681545182	1
1	10023	155.174681545182	1
1	10034	155.374681545182	1
1	10043	155.574681545182	1
1	10058	155.774681545182	1
1	10069	155.974681545182	1
1	10088	156.174681545182	1
1	10101	156.374681545182	1
1	10112	156.574681545182	1
1	10123	156.774681545182	1
1	10138	156.974681545182	1
1	10155	157.174681545182	1
1	10168	157.374681545182	1
1	10181	157.574681545182	1
1	10192	157.774681545182	1
1	10203	157.974681545182	1
1	10216	158.174681545182	1
1	10229	158.374681545182	1
1	10244	158.574681545182	1
1	10253	158.774681545182	1
1	10266	158.974681545182	1
1	10285	159.174681545182	1
1	10300	159.374681545182	1
1	10311	159.574681545182	1
1	10328	159.774681545182	1
1	10339	159.974681545182	1
1	10352	160.174681545182	1
1	10363	160.374681545182	1
1	10372	160.574681545182	1
1	10385	160.774681545182	1
1	10398	160.974681545182	1
1	10409	161.174681545182	1
1	10422	161.374681545182	1
1	10445	161.574681545182	1
1	10456	161.774681545182	1
1	10469	161.974681545182	1
1	10482	162.174681545182	1
1	10493	162.374681545182	1
1	10506	162.574681545182	1
1	10519	162.774681545182	1
1	10528	162.974681545182	1
1	10543	163.174681545182	1
1	10554	163.374681545182	1
1	10567	163.574681545182	1
1	10580	163.774681545182	1
1	10593	163.974681545182	1
1	10610	164.174681545182	1
1	10629	164.374681545182	1
1	10644	164.574681545182	1
1	10659	164.774681545182	1
1	10672	164.974681545182	1
1	10689	165.174681545182	1
1	10712	165.374681545182	1
1	10721	165.574681545182	1
1	10738	165.774681545182	1
1	10749	165.974681545182	1
1	10760	166.174681545182	1
1	10777	166.374681545182	1
1	10792	166.574681545182	1
1	10805	166.774681545182	1
1	10816	166.974681545182	1
1	10829	167.174681545182	1
1	10842	167.374681545182	1
1	10855	167.574681545182	1
1	10874	167.774681545182	1
1	10885	167.974681545182	1
1	10904	168.174681545182	1
1	10917	168.374681545182	1
1	10928	168.574681545182	1
1	10943	168.774681545182	1
1	10954	168.974681545182	1
1	10965	169.174681545182	1
1	10976	169.374681545182	1
1	10991	169.574681545182	1
1	11004	169.774681545182	1
1	11019	169.974681545182	1
1	11030	170.174681545182	1
1	11039	170.374681545182	1
1	11050	170.574681545182	1
1	11061	170.774681545182	1
1	11078	170.974681545182	1
1	11089	171.174681545182	1
1	11102	171.374681545182	1
1	11113	171.574681545182	1
1	11126	171.774681545182	1
1	11139	171.974681545182	1
1	11156	172.174681545182	1
1	11167	172.374681545182	1
1	11180	172.574681545182	1
1	11191	172.774681545182	1
1	11204	172.974681545182	1
1	11221	173.174681545182	1
1	11232	173.374681545182	1
1	11243	173.574681545182	1
1	11262	173.774681545182	1
1	11273	173.974681545182	1
1	11286	174.174681545182	1
1	11297	174.374681545182	1
1	11312	174.574681545182	1
1	11325	174.774681545182	1
1	11338	174.974681545182	1
1	11355	175.174681545182	1
1	11368	175.374681545182	1
1	11383	175.574681545182	1
1	11394	175.774681545182	1
1	11403	175.974681545182	1
1	11414	176.174681545182	1
1	11429	176.374681545182	1
1	11444	176.574681545182	1
1	11457	176.774681545182	1
1	11472	176.974681545182	1
1	11485	177.174681545182	1
1	11496	177.374681545182	1
1	11507	177.574681545182	1
1	11518	177.774681545182	1
1	11529	177.974681545182	1
1	11542	178.174681545182	1
1	11551	178.374681545182	1
1	11560	178.574681545182	1
1	11571	178.774681545182	1
1	11584	178.974681545182	1
1	11603	179.174681545182	1
1	11618	179.374681545182	1
1	11635	179.574681545182	1
1	11646	179.774681545182	1
1	11655	179.974681545182	1
1	11668	180.174681545182	1
1	11683	180.374681545182	1
1	11694	180.574681545182	1
1	11705	180.774681545182	1
1	11720	180.974681545182	1
1	11739	181.174681545182	1
1	11748	181.374681545182	1
1	11761	181.574681545182	1
1	11772	181.774681545182	1
1	11785	181.974681545182	1
1	11798	182.174681545182	1
1	11813	182.374681545182	1
1	11826	182.574681545182	1
1	11839	182.774681545182	1
1	11852	182.974681545182	1
1	11861	183.174681545182	1
1	11878	183.374681545182	1
1	11889	183.574681545182	1
1	11902	183.774681545182	1
1	11919	183.974681545182	1
1	11928	184.174681545182	1
1	11937	184.374681545182	1
1	11950	184.574681545182	1
1	11963	184.774681545182	1
1	11974	184.974681545182	1
1	11987	185.174681545182	1
1	12004	185.374681545182	1
1	12013	185.574681545182	1
1	12030	185.774681545182	1
1	12041	185.974681545182	1
1	12052	186.174681545182	1
1	12067	186.374681545182	1
1	12078	186.574681545182	1
1	12089	186.774681545182	1
1	12104	186.974681545182	1
1	12115	187.174681545182	1
1	12132	187.374681545182	1
1	12147	187.574681545182	1
1	12160	187.774681545182	1
1	12173	187.974681545182	1
1	12184	188.174681545182	1
1	12197	188.374681545182	1
1	12206	188.574681545182	1
1	12215	188.774681545182	1
1	12230	188.974681545182	1
1	12245	189.174681545182	1
1	12262	189.374681545182	1
1	12275	189.574681545182	1
1	12288	189.774681545182	1
1	12297	189.974681545182	1
1	12310	190.174681545182	1
1	12325	190.374681545182	1
1	12338	190.574681545182	1
1	12351	190.774681545182	1
1	12362	190.974681545182	1
1	12377	191.174681545182	1
1	12386	191.374681545182	1
1	12397	191.574681545182	1
1	12406	191.774681545182	1
1	12419	191.974681545182	1
1	12432	192.174681545182	1
1	12451	192.374681545182	1
1	12464	192.574681545182	1
1	12477	192.774681545182	1
1	12488	192.974681545182	1
1	12499	193.174681545182	1
1	12516	193.374681545182	1
1	12527	193.574681545182	1
1	12544	193.774681545182	1
1	12555	193.974681545182	1
1	12570	194.174681545182	1
1	12579	194.374681545182	1
1	12594	194.574681545182	1
1	12611	194.774681545182	1
1	12622	194.974681545182	1
1	12633	195.174681545182	1
1	12648	195.374681545182	1
1	12657	195.574681545182	1
1	12668	195.774681545182	1
1	12679	195.974681545182	1
1	12694	196.174681545182	1
1	12703	196.374681545182	1
1	12712	196.574681545182	1
1	12721	196.774681545182	1
1	12730	196.974681545182	1
1	12745	197.174681545182	1
1	12762	197.374681545182	1
1	12775	197.574681545182	1
1	12786	197.774681545182	1
1	12799	197.974681545182	1
1	12812	198.174681545182	1
1	12825	198.374681545182	1
1	12838	198.574681545182	1
1	12851	198.774681545182	1
1	12860	198.974681545182	1
1	12873	199.174681545182	1
1	12886	199.374681545182	1
1	12899	199.574681545182	1
1	12912	199.774681545182	1
1	12925	199.974681545182	1
2	0	0	0
3	1	0.079587450457	1
3	4	0.169443489305	1
3	11	0.29503656511	1
3	21	0.480996986317	1
3	24	0.573319299464	1
3	35	0.768473833052	1
3	41	0.84719394705	1
3	52	1.03509035247	1
3	57	1.090195201137	1
3	64	1.187895843776	1
3	70	1.291711773842	1
3	74	1.340224590214	1
3	79	1.397776509902	1
3	81	1.433092423816	1
3	94	1.65544486602	1
3	96	1.661283332929	1
3	114	1.992774560922	1
3	117	2.024610175006	1
3	119	2.072970385501	1
3	125	2.137915020326	1
3	136	2.294804632088	1
3	143	2.46202575212	1
3	149	2.537293163451	1
3	156	2.602681420173	1
3	160	2.686624705463	1
3	164	2.736511906365	1
3	180	2.99633731495	1
3	187	3.177174241377	1
3	193	3.184542776924	1
3	195	3.225700576548	1
3	197	3.23481667916	1
3	203	3.339277929991	1
3	205	3.341320488831	1
3	212	3.387245302557	1
3	218	3.565994068901	1
3	238	3.881011061769	1
3	245	4.031589487633	1
3	247	4.046712572999	1
3	258	4.250743998793	1
3	269	4.454833220384	1
3	284	4.839355407298	1
3	289	4.903526324566	1
3	298	5.064050280272	1
3	308	5.225450487761	1
3	313	5.287343433724	1
3	317	5.360839875843	1
3	326	5.512493473242	1
3	335	5.626087367413	1
3	338	5.638674808357	1
3	344	5.766197578579	1
3	351	5.868340766014	1
3	357	5.955572885518	1
3	359	5.971045853568	1
3	366	6.048129319415	1
3	381	6.337571367214	1
3	389	6.479707835223	1
3	394	6.553490564399	1
3	396	6.564685180462	1
3	403	6.618241752485	1
3	409	6.682411222688	1
3	411	6.713139257903	1
3	413	6.733759586106	1
3	424	6.882585068681	1
3	431	7.016114087143	1
3	433	7.077022329461	1
3	439	7.101427178535	1
3	446	7.185460649096	1
3	448	7.199988451825	1
3	450	7.201885308745	1
3	452	7.241062389813	1
3	458	7.33720048372	1
3	460	7.353414132665	1
3	467	7.448113800382	1
3	469	7.473257993589	1
3	475	7.569212791326	1
3	482	7.618068496257	1
3	497	7.905859998385	1
3	508	8.138751335806	1
3	515	8.253265231276	1
3	521	8.313039838958	1
3	523	8.357591688463	1
3	530	8.452541146813	1
3	536	8.509994387487	1
3	547	8.742629493656	1
3	554	8.862240273602	1
3	556	8.87269639618	1
3	558	8.878907925227	1
3	578	9.228929293672	1
3	584	9.338820540427	1
3	591	9.444703953576	1
3	597	9.555763698145	1
3	599	9.574506304747	1
3	606	9.598126975355	1
3	608	9.642467378217	1
3	610	9.65627024706	1
3	621	9.795174516039	1
3	623	9.833070712467	1
3	629	9.926676868444	1
3	631	9.971887074466	1
3	638	10.011198330196	1
3	644	10.095641109549	1
3	646	10.09955942519	1
3	648	10.157291856271	1
3	655	10.257878956788	1
3	679	10.703328641406	1
3	695	11.022623305611	1
3	697	11.033386816427	1
3	703	11.139169457762	1
3	705	11.16259960964	1
3	712	11.263401534182	1
3	718	11.280992888725	1
3	743	11.817002923749	1
3	749	11.922877195258	1
3	756	12.010068780621	1
3	758	12.039276833948	1
3	764	12.092783301656	1
3	766	12.155577459755	1
3	773	12.219955559915	1
3	775	12.247983260763	1
3	781	12.34566966817	1
3	783	12.362982413785	1
3	790	12.404232536777	1
3	792	12.415928077756	1
3	798	12.528244907909	1
3	805	12.635052127624	1
3	807	12.673207711961	1
3	813	12.688078938886	1
3	820	12.838742472213	1
3	822	12.860630531864	1
3	837	13.159349521049	1
3	844	13.205350916823	1
3	850	13.313977854911	1
3	861	13.486011020683	1
3	863	13.487377478526	1
3	865	13.497591966678	1
3	872	13.595102160094	1
3	878	13.777084052022	1
3	889	13.889065488597	1
3	891	13.899168966128	1
3	907	14.256527803362	1
3	927	14.63143094932	1
3	938	14.841963079399	1
3	944	14.905196739039	1
3	946	14.976455098372	1
3	966	15.352647826822	1
3	968	15.358380519464	1
3	975	15.451228369154	1
3	981	15.511223057818	1
3	988	15.645647585033	1
3	990	15.647666597848	1
3	992	15.651664227754	1
3	998	15.709952066641	1
3	1000	15.743193090737	1
3	1020	16.132350103022	1
3	1022	16.145155779553	1
3	1029	16.189697725745	1
3	1031	16.224815334683	1
3	1037	16.290379963119	1
3	1039	16.303018826762	1
3	1046	16.419706179417	1
3	1048	16.457976274303	1
3	1059	16.670399994003	1
3	1065	16.723888431579	1
3	1076	16.974279609888	1
3	1083	16.980909350036	1
3	1085	17.005348894844	1
3	1091	17.123267847551	1
3	1098	17.206552199158	1
3	1104	17.290161952355	1
3	1115	17.490486004606	1
3	1117	17.521327488616	1
3	1124	17.592452282338	1
3	1126	17.666528177383	1
3	1141	17.915086413081	1
3	1143	17.924951443923	1
3	1154	18.178981894719	1
3	1161	18.264771458826	1
3	1163	18.27344850706	1
3	1178	18.538374099928	1
3	1180	18.570908141481	1
3	1187	18.609264162891	1
3	1189	18.610204237957	1
3	1195	18.720288828966	1
3	1206	18.905021594066	1
3	1208	18.919154665422	1
3	1215	19.02333273084	1
3	1221	19.149326111851	1
3	1232	19.333454359	1
3	1234	19.367619775703	1
3	1241	19.398371548079	1
3	1243	19.418606591936	1
3	1245	19.469326604262	1
3	1251	19.557639508458	1
3	1258	19.638119248438	1
3	1260	19.640150494318	1
3	1262	19.658175719516	1
3	1273	19.834749826757	1
3	1279	19.880922916361	1
3	1281	19.88139357041	1
3	1283	19.897227721033	1
3	1290	20.01049113523	1
3	1296	20.094799438445	1
3	1298	20.12627160453	1
3	1305	20.247922469874	1
3	1316	20.380798257249	1
3	1318	20.414832931073	1
3	1333	20.742347248844	1
3	1340	20.799137664192	1
3	1342	20.827739761443	1
3	1348	20.968842202372	1
3	1355	21.054681499155	1
3	1361	21.105115879814	1
3	1368	21.194774966893	1
3	1379	21.421148324479	1
3	1385	21.506070405635	1
3	1392	21.607936278637	1
3	1394	21.633178277926	1
3	1405	21.855328967773	1
3	1420	22.160557133461	1
3	1427	22.274517929814	1
3	1433	22.333780332559	1
3	1440	22.393418271992	1
3	1451	22.580764259978	1
3	1466	22.965064918302	1
3	1477	23.085288775027	1
3	1479	23.097641439763	1
3	1481	23.13294345309	1
3	1488	23.278625308946	1
3	1499	23.446717529401	1
3	1505	23.499789779063	1
3	1507	23.550291653838	1
3	1514	23.662819855522	1
3	1525	23.875769795129	1
3	1531	23.904510842736	1
3	1538	23.991564425369	1
3	1540	24.02913830961	1
3	1551	24.242621354608	1
3	1566	24.579058399913	1
3	1577	24.696996693277	1
3	1584	24.785782834321	1
3	1590	24.914973761201	1
3	1597	25.022757249615	1
3	1603	25.092337195705	1
3	1605	25.168523972835	1
3	1623	25.481070808601	1
3	1626	25.507276532769	1
3	1633	25.610556233834	1
3	1635	25.66078731366	1
3	1641	25.715926912673	1
3	1648	25.812372269222	1
3	1654	25.905612557263	1
3	1656	25.970023028095	1
3	1658	25.97196100623	1
3	1665	26.035473777793	1
3	1667	26.07136649938	1
3	1678	26.197270851106	1
3	1684	26.305202870972	1
3	1686	26.33916934423	1
3	1688	26.3734293067	1
3	1695	26.421792875359	1
3	1701	26.518030380936	1
3	1708	26.65632830159	1
3	1714	26.712324408597	1
3	1725	26.923069169092	1
3	1727	26.937626566937	1
3	1729	26.948481276786	1
3	1736	26.983903690011	1
3	1738	26.993595965469	1
3	1740	27.077984812728	1
3	1746	27.121687614105	1
3	1753	27.211060521936	1
3	1759	27.291315720512	1
3	1761	27.376723694076	1
3	1766	27.380144035912	1
3	1774	27.48604497445	1
3	1790	27.833298522378	1
3	1796	27.938883483244	1
3	1798	27.977596492459	1
3	1805	28.034057542571	1
3	1807	28.059065692069	1
3	1822	28.285929091338	1
3	1824	28.301158453863	1
3	1826	28.346975742259	1
3	1828	28.357207803744	1
3	1835	28.414453958887	1
3	1855	28.828234934938	1
3	1866	29.050726400661	1
3	1870	29.080882991983	1
3	1879	29.244972749776	1
3	1885	29.321980435731	1
3	1892	29.443682385265	1
3	1898	29.503089735097	1
3	1900	29.51365099946	1
3	1902	29.52413918302	1
3	1913	29.776067396028	1
3	1920	29.819501961622	1
3	1926	29.944762714113	1
3	1933	30.008108975885	1
3	1966	30.684648027879	1
3	1973	30.868621306387	1
3	1979	30.884808315058	1
3	1990	31.119826044033	1
3	2001	31.322416925743	1
3	2004	31.326245217031	1
3	2006	31.343977774546	1
3	2011	31.414969567268	1
3	2017	31.51056620966	1
3	2021	31.528820069848	1
3	2023	31.542038440809	1
3	2032	31.69302078637	1
3	2043	31.881413675029	1
3	2054	32.081612324582	1
3	2063	32.246284234715	1
3	2067	32.299284522529	1
3	2074	32.383472618702	1
3	2076	32.398551719721	1
3	2080	32.45083872273	1
3	2082	32.454217401285	1
3	2084	32.461384939716	1
3	2104	32.866369623596	1
3	2113	32.985913480224	1
3	2117	33.032640736865	1
3	2121	33.09307064405	1
3	2125	33.147556356864	1
3	2132	33.275589777245	1
3	2136	33.280781032463	1
3	2147	33.482058306084	1
3	2151	33.527549490563	1
3	2169	33.898545549753	1
3	2171	33.900222326352	1
3	2182	34.093880050101	1
3	2184	34.120112981018	1
3	2186	34.12129130421	1
3	2195	34.266070712409	1
3	2199	34.310695994461	1
3	2215	34.599157169671	1
3	2223	34.730087006073	1
3	2231	34.868716141275	1
3	2236	34.887545638797	1
3	2238	34.929006893063	1
3	2245	35.002620003062	1
3	2249	35.069866054745	1
3	2251	35.075453060034	1
3	2255	35.116850952301	1
3	2257	35.139164873111	1
3	2259	35.158947823857	1
3	2261	35.160817370899	1
3	2265	35.179569266019	1
3	2274	35.33741053823	1
3	2281	35.399670272628	1
3	2283	35.425020843142	1
3	2294	35.632623949186	1
3	2298	35.674989659322	1
3	2311	35.963444088163	1
3	2327	36.226665974418	1
3	2333	36.32037984619	1
3	2340	36.442259526524	1
3	2346	36.533055929256	1
3	2348	36.536291609721	1
3	2359	36.689374732348	1
3	2361	36.707370466503	1
3	2365	36.776690443457	1